LAMMPS data file. CGCMM Style. atom_style full. Created by charmm2lammps v1.9.2 on Mon  4 Jul 14:34:42 PDT 2022

        1875  atoms
        1875  bonds
        3415  angles
        5660  dihedrals
         285  impropers

          89  atom types
          37  bond types
          89  angle types
         201  dihedral types
          10  improper types

     -100       100 xlo xhi
     -100       100 ylo yhi
     -100       100 zlo zhi

Masses

       1      1.008  # H
       2      1.008  # HC
       3      1.008  # HP
       4      1.008  # HB1
       5      1.008  # HB2
       6      1.008  # HA1
       7      1.008  # HA2
       8      1.008  # HA3
       9     12.011  # C
      10     12.011  # CA
      11     12.011  # CT1
      12     12.011  # CT2
      13     12.011  # CT2A
      14     12.011  # CT3
      15     12.011  # CC
      16     14.007  # NH1
      17     14.007  # NH2
      18     14.007  # NH3
      19     15.999  # O
      20   	 15.999  # OC
      21     15.999  # OH1
      22      32.06  # S
      23     15.999  # O	(18 -> 19)
      24     14.007  # NH1	(18 -> 19)
      25      1.008  # H	(18 -> 19)
      26     15.999  # O	(19 -> 20)
      27     14.007  # NH1	(19 -> 20)
      28      1.008  # H	(19 -> 20)
      29     15.999  # O	(20 -> 21)
      30     14.007  # NH1	(20 -> 21)
      31      1.008  # H	(20 -> 21)
      32     15.999  # O	(21 -> 22)
      33     14.007  # NH1	(21 -> 22)
      34      1.008  # H	(21 -> 22)
      35     15.999  # O	(22 -> 23)
      36     14.007  # NH1	(22 -> 23)
      37      1.008  # H	(22 -> 23)
      38     15.999  # O	(23 -> 24)
      39     14.007  # NH1	(23 -> 24)
      40      1.008  # H	(23 -> 24)
      41     15.999  # O	(24 -> 25)
      42     14.007  # NH1	(24 -> 25)
      43      1.008  # H	(24 -> 25)
      44     15.999  # O	(25 -> 26)
      45     14.007  # NH1	(25 -> 26)
      46      1.008  # H	(25 -> 26)
      47     15.999  # O	(26 -> 27)
      48     14.007  # NH1	(26 -> 27)
      49      1.008  # H	(26 -> 27)
      50     15.999  # O	(27 -> 28)
      51     14.007  # NH1	(27 -> 28)
      52      1.008  # H	(27 -> 28)
      53     15.999  # O	(28 -> 29)
      54     14.007  # NH1	(28 -> 29)
      55      1.008  # H	(28 -> 29)
      56     15.999  # O	(30 -> 31)
      57     14.007  # NH1	(30 -> 31)
      58      1.008  # H	(30 -> 31)
      59     15.999  # O	(31 -> 32)
      60     14.007  # NH1	(31 -> 32)
      61      1.008  # H	(31 -> 32)
      62     15.999  # O	(32 -> 33)
      63     14.007  # NH1	(32 -> 33)
      64      1.008  # H	(32 -> 33)
      65     15.999  # O	(33 -> 34)
      66     14.007  # NH1	(33 -> 34)
      67      1.008  # H	(33 -> 34)
      68     15.999  # O	(34 -> 35)
      69     14.007  # NH1	(34 -> 35)
      70      1.008  # H	(34 -> 35)
      71     15.999  # O	(35 -> 36)
      72     14.007  # NH1	(35 -> 36)
      73      1.008  # H	(35 -> 36)
      74     15.999  # O	(36 -> 37)
      75     14.007  # NH1	(36 -> 37)
      76      1.008  # H	(36 -> 37)
      77     15.999  # O	(37 -> 38)
      78     14.007  # NH1	(37 -> 38)
      79      1.008  # H	(37 -> 38)
      80     15.999  # O	(38 -> 39)
      81     14.007  # NH1	(38 -> 39)
      82      1.008  # H	(38 -> 39)
      83     15.999  # O	(39 -> 40)
      84     14.007  # NH1	(39 -> 40)
      85      1.008  # H	(39 -> 40)
      86     15.999  # O	(40 -> 41)
      87     14.007  # NH1	(40 -> 41)
      88      1.008  # H	(40 -> 41)
      89   22.98977  # Na	(ION)


Atoms # full

       1       1    18      -0.3          -16.074           -6.064           -3.588  # NH3
       2       1     2      0.33          -16.867           -5.943            -4.25  # HC
       3       1     2      0.33          -16.436           -6.397           -2.672  # HC
       4       1     2      0.33          -15.407           -6.763           -3.972  # HC
       5       1    11      0.21          -15.394           -4.793           -3.408  # CT1
       6       1     4       0.1          -14.992           -4.498           -4.377  # HB1
       7       1    12     -0.18          -16.387            -3.71           -2.982  # CT2
       8       1     7      0.09          -16.908           -4.082            -2.07  # HA2
       9       1     7      0.09          -16.895           -4.046           -2.077  # HA2
      10       1    11     -0.09          -17.448           -3.328           -4.016  # CT1
      11       1     6      0.09          -17.324           -3.972           -4.886  # HA1
      12       1    14     -0.27          -18.857            -3.57           -3.471  # CT3
      13       1     8      0.09          -19.509           -2.751           -3.775  # HA3
      14       1     8      0.09          -19.244           -4.509           -3.868  # HA3
      15       1     8      0.09          -18.822           -3.623           -2.383  # HA3
      16       1    14     -0.27          -17.257           -1.886            -4.49  # CT3
      17       1     8      0.09          -18.008           -1.248           -4.025  # HA3
      18       1     8      0.09          -16.262            -1.54           -4.209  # HA3
      19       1     8      0.09          -17.364           -1.843           -5.574  # HA3
      20       1     9      0.51          -14.229           -4.977           -2.434  # C
      21       1    19     -0.51          -14.238            -4.42           -1.337  # O
      22       2    16     -0.47          -13.253            -5.76            -2.87  # NH1
      23       2     1      0.31          -13.244           -6.212           -3.758  # H
      24       2    11      0.07          -12.083           -6.024            -2.05  # CT1
      25       2     4      0.09          -12.303           -5.676           -1.041  # HB1
      26       2    11     -0.09          -11.818           -7.529           -1.985  # CT1
      27       2     6      0.09          -11.152           -7.716           -1.143  # HA1
      28       2    14     -0.27          -13.115           -8.304           -1.739  # CT3
      29       2     8      0.09          -12.943            -9.07           -0.983  # HA3
      30       2     8      0.09          -13.888           -7.617           -1.393  # HA3
      31       2     8      0.09          -13.438           -8.775           -2.667  # HA3
      32       2    14     -0.27          -11.119           -8.019           -3.255  # CT3
      33       2     8      0.09           -10.04           -8.005           -3.103  # HA3
      34       2     8      0.09          -11.442           -9.035           -3.478  # HA3
      35       2     8      0.09          -11.378           -7.364           -4.087  # HA3
      36       2     9      0.51          -10.893           -5.231           -2.596  # C
      37       2    23     -0.51          -10.863           -4.885           -3.776  # O
      38       3    24     -0.47           -9.943           -4.966           -1.711  # NH1
      39       3    25      0.31           -9.968           -5.246           -0.753  # H
      40       3    11      0.07           -8.755           -4.221           -2.089  # CT1
      41       3     4      0.09           -8.776           -4.107           -3.173  # HB1
      42       3    12     -0.18           -8.807           -2.887           -1.342  # CT2
      43       3     7      0.09           -9.644           -2.912           -0.611  # HA2
      44       3     7      0.09           -9.587           -2.938           -0.582  # HA2
      45       3    10         0            -9.07           -1.679           -2.243  # CA
      46       3    10    -0.115          -10.331           -1.421           -2.683  # CA
      47       3     3     0.115          -11.153           -2.075           -2.395  # HP
      48       3    10    -0.115          -10.575           -0.299           -3.519  # CA
      49       3     3     0.115          -11.585           -0.093           -3.872  # HP
      50       3    10    -0.115           -9.549            0.517           -3.879  # CA
      51       3     3     0.115           -9.736            1.378           -4.521  # HP
      52       3    10    -0.115           -8.044           -0.862           -2.602  # CA
      53       3     3     0.115           -7.033           -1.069           -2.249  # HP
      54       3    10    -0.115           -8.288            0.259           -3.438  # CA
      55       3     3     0.115           -7.466            0.914           -3.727  # HP
      56       3     9      0.51           -7.485           -4.971           -1.683  # C
      57       3    26     -0.51             -7.2           -5.119           -0.495  # O
      58       4    27     -0.47           -6.755           -5.423           -2.692  # NH1
      59       4    28      0.31           -6.985           -5.302           -3.656  # H
      60       4    11      0.07           -5.521           -6.154           -2.454  # CT1
      61       4     4      0.09           -5.484           -6.389           -1.391  # HB1
      62       4    12     -0.18            -5.56           -7.397           -3.345  # CT2
      63       4     7      0.09            -6.35           -7.267           -4.117  # HA2
      64       4     7      0.09            -6.29           -7.241           -4.139  # HA2
      65       4    10         0           -5.908           -8.687           -2.599  # CA
      66       4    10    -0.115            -7.12           -8.818           -1.996  # CA
      67       4     3     0.115           -7.843           -8.004           -2.045  # HP
      68       4    10    -0.115           -7.443          -10.015           -1.304  # CA
      69       4     3     0.115           -8.414           -10.12           -0.821  # HP
      70       4    10    -0.115            -6.54           -11.03           -1.244  # CA
      71       4     3     0.115           -6.788          -11.949           -0.712  # HP
      72       4    10    -0.115           -5.005           -9.703           -2.539  # CA
      73       4     3     0.115           -4.033           -9.598           -3.022  # HP
      74       4    10    -0.115           -5.328          -10.899           -1.846  # CA
      75       4     3     0.115           -4.604          -11.713           -1.798  # HP
      76       4     9      0.51           -4.302           -5.309            -2.83  # C
      77       4    29     -0.51             -3.7           -5.516           -3.882  # O
      78       5    30     -0.47           -3.975           -4.375           -1.949  # NH1
      79       5    31      0.31           -4.475           -4.219           -1.097  # H
      80       5    11      0.07           -2.839           -3.498           -2.175  # CT1
      81       5     4      0.09           -2.546           -3.598            -3.22  # HB1
      82       5    14     -0.27           -3.254           -2.048           -1.916  # CT3
      83       5     8      0.09           -2.363           -1.428           -1.819  # HA3
      84       5     8      0.09           -3.858           -1.689           -2.749  # HA3
      85       5     8      0.09           -3.835           -1.996           -0.996  # HA3
      86       5     9      0.51           -1.675            -3.94           -1.286  # C
      87       5    32     -0.51            -1.84           -4.108           -0.079  # O
      88       6    33     -0.47           -0.523           -4.115           -1.918  # NH1
      89       6    34      0.31            -0.38           -3.981           -2.895  # H
      90       6    11      0.07            0.668           -4.534           -1.199  # CT1
      91       6     4      0.09             0.64           -3.993           -0.253  # HB1
      92       6    13     -0.18            0.639           -6.037           -0.918  # CT2A
      93       6     7      0.09            1.358            -6.25           -0.094  # HA2
      94       6     7      0.09            1.334           -6.274           -0.112  # HA2
      95       6    12     -0.28             1.01           -6.836           -2.169  # CT2
      96       6     7      0.09            1.048           -6.159           -3.042  # HA2
      97       6     7      0.09            1.117            -6.16           -3.018  # HA2
      98       6    15      0.62           -0.054           -7.891           -2.481  # CC
      99       6    20     -0.76            -1.11           -7.491           -3.017  # OC
     100       6    20     -0.76            0.214           -9.074           -2.177  # OC
     101       6     9      0.51            1.924           -4.146           -1.982  # C
     102       6    35     -0.51            1.889           -4.046           -3.207  # O
     103       7    36     -0.47            3.003           -3.939           -1.242  # NH1
     104       7    37      0.31            3.057           -4.013            -0.25  # H
     105       7    11      0.07            4.268           -3.565           -1.852  # CT1
     106       7     4      0.09            4.125           -3.714           -2.923  # HB1
     107       7    13     -0.28            4.615           -2.106            -1.55  # CT2A
     108       7     7      0.09            3.877           -1.445           -2.047  # HA2
     109       7     7      0.09            3.856           -1.467           -2.001  # HA2
     110       7    15      0.62            5.991           -1.653           -2.042  # CC
     111       7    20     -0.76            6.158           -1.587           -3.279  # OC
     112       7    20     -0.76            6.845           -1.384            -1.17  # OC
     113       7     9      0.51            5.384           -4.444           -1.283  # C
     114       7    38     -0.51            5.845           -4.221           -0.165  # O
     115       8    39     -0.47            5.784           -5.425           -2.079  # NH1
     116       8    40      0.31            5.411           -5.607           -2.985  # H
     117       8    11      0.07            6.837           -6.339           -1.668  # CT1
     118       8     4      0.09            6.706           -6.534           -0.604  # HB1
     119       8    11     -0.09            6.698           -7.667           -2.414  # CT1
     120       8     6      0.09            6.765            -7.46           -3.482  # HA1
     121       8    14     -0.27            7.835           -8.623           -2.049  # CT3
     122       8     8      0.09            7.471           -9.365           -1.338  # HA3
     123       8     8      0.09             8.19           -9.126           -2.948  # HA3
     124       8     8      0.09            8.653            -8.06           -1.599  # HA3
     125       8    14     -0.27            5.335           -8.307           -2.144  # CT3
     126       8     8      0.09            5.469           -9.213           -1.553  # HA3
     127       8     8      0.09            4.706           -7.605           -1.596  # HA3
     128       8     8      0.09            4.857           -8.559           -3.091  # HA3
     129       8     9      0.51            8.197           -5.672           -1.883  # C
     130       8    41     -0.51            8.513            -5.24           -2.991  # O
     131       9    42     -0.47            8.967           -5.609           -0.806  # NH1
     132       9    43      0.31            8.693           -5.965            0.087  # H
     133       9    12     -0.02           10.286           -5.003           -0.863  # CT2
     134       9     5      0.09           10.292           -4.165            -0.18  # HB2
     135       9     5      0.09           10.494           -4.672            -1.88  # HB2
     136       9     9      0.51           11.363            -5.99           -0.411  # C
     137       9    44     -0.51           11.488           -6.278            0.779  # O
     138      10    45     -0.47           12.115           -6.483           -1.384  # NH1
     139      10    46      0.31           12.018           -6.253           -2.352  # H
     140      10    11      0.07           13.178           -7.432           -1.102  # CT1
     141      10     4      0.09           12.932           -7.861            -0.13  # HB1
     142      10    12      0.05           13.218           -8.543           -2.152  # CT2
     143      10     7      0.09           13.634           -9.458           -1.672  # HA2
     144      10     7      0.09           13.586           -9.462           -1.695  # HA2
     145      10    21     -0.66           14.047           -8.201            -3.26  # OH1
     146      10     1      0.43           14.203           -9.013           -3.759  # H
     147      10     9      0.51           14.525           -6.708           -1.043  # C
     148      10    47     -0.51           15.125           -6.422           -2.078  # O
     149      11    48     -0.47            14.96           -6.433            0.178  # NH1
     150      11    49      0.31           14.473           -6.666            1.019  # H
     151      11    11      0.07           16.224           -5.747            0.385  # CT1
     152      11     4      0.09           16.364           -5.725            1.466  # HB1
     153      11    12     -0.18           17.373           -6.495           -0.295  # CT2
     154      11     7      0.09           17.145           -7.582            -0.25  # HA2
     155      11     7      0.09           17.162           -7.564           -0.303  # HA2
     156      11    15      0.55           18.698           -6.236            0.426  # CC
     157      11    19     -0.55           18.741           -5.747            1.543  # O
     158      11    17     -0.62           19.772            -6.59           -0.273  # NH2
     159      11     1      0.32           19.667           -6.986           -1.185  # H
     160      11     1       0.3           20.685            -6.46            0.114  # H
     161      11     9      0.51           16.146           -4.346           -0.224  # C
     162      11    50     -0.51           15.256           -4.063           -1.025  # O
     163      12    51     -0.47           17.088           -3.507            0.178  # NH1
     164      12    52      0.31           17.806           -3.747            0.829  # H
     165      12    11      0.07           17.137           -2.142           -0.318  # CT1
     166      12     4      0.09           17.967           -1.642            0.181  # HB1
     167      12    12     -0.18           17.437           -2.128           -1.818  # CT2
     168      12     7      0.09           17.162           -3.132           -2.217  # HA2
     169      12     7      0.09           17.174           -3.091           -2.255  # HA2
     170      12    12     -0.18           18.915            -1.83           -2.079  # CT2
     171      12     7      0.09           19.193           -0.885            -1.56  # HA2
     172      12     7      0.09             19.2           -0.912           -1.566  # HA2
     173      12    12     -0.18           19.189           -1.689           -3.578  # CT2
     174      12     7      0.09           19.608           -2.651           -3.951  # HA2
     175      12     7      0.09           19.616           -2.616           -3.962  # HA2
     176      12    12      0.21           20.147           -0.528           -3.853  # CT2
     177      12     7      0.05           19.614            0.305           -4.362  # HA2
     178      12     7      0.05           19.608            0.291           -4.329  # HA2
     179      12    18      -0.3            21.26           -0.969           -4.723  # NH3
     180      12     2      0.33           20.959           -1.741           -5.283  # HC
     181      12     2      0.33           21.538           -0.214           -5.317  # HC
     182      12     2      0.33           22.035           -1.251           -4.156  # HC
     183      12     9      0.51           15.841           -1.421            0.057  # C
     184      12    53     -0.51           14.769           -1.766           -0.439  # O
     185      13    54     -0.47           15.981           -0.434            0.929  # NH1
     186      13    55      0.31           16.861           -0.168            1.322  # H
     187      13    12     -0.02           14.834            0.339            1.376  # CT2
     188      13     5      0.09            14.69            0.136            2.428  # HB2
     189      13     5      0.09           13.952            0.051            0.803  # HB2
     190      13     9      0.51           15.087            1.839            1.214  # C
     191      13    19     -0.51           14.263            2.553            0.646  # O
     192      14    16     -0.47           16.231            2.272            1.724  # NH1
     193      14     1      0.31           16.892            1.679            2.183  # H
     194      14    11      0.07           16.602            3.675            1.643  # CT1
     195      14     4      0.09           17.371            3.858            2.394  # HB1
     196      14    14     -0.27           17.186            3.969             0.26  # CT3
     197      14     8      0.09           16.395             3.91           -0.488  # HA3
     198      14     8      0.09           17.618             4.97            0.253  # HA3
     199      14     8      0.09            17.96            3.238            0.028  # HA3
     200      14     9      0.51           15.381            4.541            1.957  # C
     201      14    56     -0.51           14.535            4.158            2.764  # O
     202      15    57     -0.47           15.327            5.691            1.303  # NH1
     203      15    58      0.31            16.01            6.005            0.647  # H
     204      15    11      0.07           14.223            6.615            1.502  # CT1
     205      15     4      0.09           13.998            6.629            2.569  # HB1
     206      15    11     -0.09           14.634            8.035            1.107  # CT1
     207      15     6      0.09           14.815            8.051            0.033  # HA1
     208      15    14     -0.27           13.508            9.031            1.392  # CT3
     209      15     8      0.09           13.651            9.469             2.38  # HA3
     210      15     8      0.09           13.521            9.819            0.639  # HA3
     211      15     8      0.09           12.549            8.514            1.359  # HA3
     212      15    12     -0.18           15.942            8.437            1.792  # CT2
     213      15     7      0.09           15.739            9.208            2.569  # HA2
     214      15     7      0.09           15.744            9.205            2.539  # HA2
     215      15    14     -0.27           16.956             8.96            0.772  # CT3
     216      15     8      0.09           17.921            9.194            1.272  # HA3
     217      15     8      0.09           17.148            8.199           -0.015  # HA3
     218      15     8      0.09           16.588            9.887            0.284  # HA3
     219      15     9      0.51           12.992              6.1            0.754  # C
     220      15    59     -0.51           12.929            6.179           -0.472  # O
     221      16    60     -0.47           12.044            5.585            1.523  # NH1
     222      16    61      0.31           12.091            5.519            2.518  # H
     223      16    11      0.07           10.818            5.058            0.948  # CT1
     224      16     4      0.09           10.782            5.377           -0.094  # HB1
     225      16    11     -0.09           10.839            3.528            0.951  # CT1
     226      16     6      0.09           11.721            3.197            0.402  # HA1
     227      16    14     -0.27           10.964            2.985            2.376  # CT3
     228      16     8      0.09           10.423            2.042            2.454  # HA3
     229      16     8      0.09           12.016            2.821            2.611  # HA3
     230      16     8      0.09           10.543            3.705            3.078  # HA3
     231      16    12     -0.18            9.617            2.961            0.227  # CT2
     232      16     7      0.09            9.388            3.582           -0.668  # HA2
     233      16     7      0.09            9.383             3.58           -0.639  # HA2
     234      16    14     -0.27            8.406            2.901            1.159  # CT3
     235      16     8      0.09            7.542            2.434            0.639  # HA3
     236      16     8      0.09            8.636            2.296            2.063  # HA3
     237      16     8      0.09            8.103            3.918            1.484  # HA3
     238      16     9      0.51            9.617            5.658             1.68  # C
     239      16    62     -0.51             9.66            5.853            2.894  # O
     240      17    63     -0.47            8.573            5.933            0.912  # NH1
     241      17    64      0.31            8.556            5.767           -0.073  # H
     242      17    12     -0.02            7.361            6.507            1.474  # CT2
     243      17     5      0.09            7.244            7.499             1.06  # HB2
     244      17     5      0.09            7.445             6.55             2.56  # HB2
     245      17     9      0.51            6.133            5.683            1.083  # C
     246      17    65     -0.51            5.704             5.71           -0.069  # O
     247      18    66     -0.47            5.601            4.971            2.065  # NH1
     248      18    67      0.31            5.946            4.947            3.001  # H
     249      18    11      0.07             4.43            4.141            1.839  # CT1
     250      18     4      0.09            4.313            4.028            0.761  # HB1
     251      18    12     -0.18            4.644            2.742             2.42  # CT2
     252      18     7      0.09            5.699            2.455            2.206  # HA2
     253      18     7      0.09            5.678             2.45            2.241  # HA2
     254      18    11     -0.09             3.73            1.642            1.876  # CT1
     255      18     6      0.09            3.515            0.945            2.685  # HA1
     256      18    14     -0.27            2.392            2.221            1.411  # CT3
     257      18     8      0.09            2.572            3.017            0.688  # HA3
     258      18     8      0.09            1.799            1.435            0.945  # HA3
     259      18     8      0.09            1.853            2.624            2.268  # HA3
     260      18    14     -0.27            4.427            0.849            0.768  # CT3
     261      18     8      0.09            3.678            0.396            0.119  # HA3
     262      18     8      0.09            5.058            1.519            0.183  # HA3
     263      18     8      0.09            5.043            0.068            1.214  # HA3
     264      18     9      0.51            3.192            4.853            2.388  # C
     265      18    68     -0.51            2.859            4.709            3.564  # O
     266      19    69     -0.47            2.543            5.605            1.512  # NH1
     267      19    70      0.31            2.812            5.723            0.558  # H
     268      19    11      0.07            1.349            6.339            1.894  # CT1
     269      19     4      0.09            1.325            6.312            2.984  # HB1
     270      19    12     -0.18            1.443            7.775            1.374  # CT2
     271      19     7      0.09            1.746            7.713            0.302  # HA2
     272      19     7      0.09            1.724            7.766            0.321  # HA2
     273      19    12     -0.14            2.468            8.581            2.174  # CT2
     274      19     7      0.09            2.045            8.876            3.157  # HA2
     275      19     7      0.09            2.051            8.857            3.142  # HA2
     276      19    22     -0.09             2.93            10.05             1.27  # S
     277      19    14     -0.22            4.707            9.893             1.31  # CT3
     278      19     8      0.09            5.159           10.748            0.808  # HA3
     279      19     8      0.09            5.046            9.859            2.346  # HA3
     280      19     8      0.09            5.003            8.975            0.801  # HA3
     281      19     9      0.51            0.092            5.673            1.331  # C
     282      19    71     -0.51           -0.066            5.564            0.116  # O
     283      20    72     -0.47           -0.771            5.246            2.241  # NH1
     284      20    73      0.31           -0.645            5.334            3.226  # H
     285      20    11      0.07            -2.01            4.594             1.85  # CT1
     286      20     4      0.09           -2.099            4.679            0.767  # HB1
     287      20    11     -0.09           -1.953            3.107            2.204  # CT1
     288      20     6      0.09           -1.392            2.597            1.421  # HA1
     289      20    14     -0.27           -1.217            2.887            3.528  # CT3
     290      20     8      0.09           -1.794            3.327            4.342  # HA3
     291      20     8      0.09           -1.098            1.818            3.704  # HA3
     292      20     8      0.09           -0.236            3.359            3.481  # HA3